
     Program PWSCF v.7.2 starts on 26Jun2023 at 11:59:35 

     This program is part of the open-source Quantum ESPRESSO suite
     for quantum simulation of materials; please cite
         "P. Giannozzi et al., J. Phys.:Condens. Matter 21 395502 (2009);
         "P. Giannozzi et al., J. Phys.:Condens. Matter 29 465901 (2017);
         "P. Giannozzi et al., J. Chem. Phys. 152 154105 (2020);
          URL http://www.quantum-espresso.org", 
     in publications or presentations arising from this work. More details at
     http://www.quantum-espresso.org/quote

     Serial multi-threaded version, running on   16 processor cores
     108136 MiB available memory on the printing compute node when the environment starts
 
     Waiting for input...
     Reading input from standard input
     Message from routine read_cards :
     DEPRECATED: no units specified in ATOMIC_POSITIONS card
     Message from routine read_cards :
     ATOMIC_POSITIONS: units set to alat

     Current dimensions of program PWSCF are:
     Max number of different atomic species (ntypx) = 10
     Max number of k-points (npk) =  40000
     Max angular momentum in pseudopotentials (lmaxx) =  4
 
 
     G-vector sticks info
     --------------------
     sticks:   dense  smooth     PW     G-vecs:    dense   smooth      PW
     Sum        1405     703    211                34717    12339    2109
 
     Using Slab Decomposition
 


     bravais-lattice index     =            2
     lattice parameter (alat)  =       9.2226  a.u.
     unit-cell volume          =     196.1075 (a.u.)^3
     number of atoms/cell      =            1
     number of atomic types    =            1
     number of electrons       =        14.00
     number of Kohn-Sham states=           11
     kinetic-energy cutoff     =      60.0000  Ry
     charge density cutoff     =     480.0000  Ry
     scf convergence threshold =      1.0E-14
     mixing beta               =       0.7000
     number of iterations used =            8  plain     mixing
     Exchange-correlation= SLA  PW   PBE  PBE
                           (   1   4   3   4   0   0   0)

     GPU acceleration is ACTIVE.


     celldm(1)=   9.222558  celldm(2)=   0.000000  celldm(3)=   0.000000
     celldm(4)=   0.000000  celldm(5)=   0.000000  celldm(6)=   0.000000

     crystal axes: (cart. coord. in units of alat)
               a(1) = (  -0.500000   0.000000   0.500000 )  
               a(2) = (   0.000000   0.500000   0.500000 )  
               a(3) = (  -0.500000   0.500000   0.000000 )  

     reciprocal axes: (cart. coord. in units 2 pi/alat)
               b(1) = ( -1.000000 -1.000000  1.000000 )  
               b(2) = (  1.000000  1.000000  1.000000 )  
               b(3) = ( -1.000000  1.000000 -1.000000 )  


     PseudoPot. # 1 for Pb read from file:
     ./pb.UPF
     MD5 check sum: 3d1c1779aa92214d1e8f3a7db79003e2
     Pseudo is Ultrasoft + core correction, Zval = 14.0
     Generated by new atomic code, or converted to UPF format
     Using radial grid of  899 points,  6 beta functions with: 
                l(1) =   0
                l(2) =   0
                l(3) =   1
                l(4) =   1
                l(5) =   2
                l(6) =   2
     Q(r) pseudized with  6 coefficients,  rinner =    1.000   1.000   1.000
                                                       1.000   1.000

     atomic species   valence    mass     pseudopotential
        Pb            14.00   207.20000     Pb( 1.00)

     48 Sym. Ops., with inversion, found



   Cartesian axes

     site n.     atom                  positions (alat units)
         1           Pb  tau(   1) = (   0.0000000   0.0000000   0.0000000  )

     number of k points=   256  Marzari-Vanderbilt smearing, width (Ry)=  0.0500

     Number of k-points >= 100: set verbosity='high' to print them.

     Dense  grid:    34717 G-vectors     FFT dimensions: (  45,  45,  45)

     Smooth grid:    12339 G-vectors     FFT dimensions: (  36,  36,  36)

     Estimated max dynamical RAM per process >     188.15 MB

     Check: negative core charge=   -0.000001

     Initial potential from superposition of free atoms

     starting charge      13.9976, renormalised to      14.0000

     negative rho (up, down):  1.602E-02 0.000E+00
     Starting wfcs are    9 randomized atomic wfcs +    2 random wfcs

     total cpu time spent up to now is        6.1 secs

     Self-consistent Calculation

     iteration #  1     ecut=    60.00 Ry     beta= 0.70
     Davidson diagonalization with overlap
     ethr =  1.00E-02,  avg # of iterations =  4.0

     Threshold (ethr) on eigenvalues was too large:
     Diagonalizing with lowered threshold

     Davidson diagonalization with overlap
     c_bands:  1 eigenvalues not converged
     c_bands:  1 eigenvalues not converged
     c_bands:  2 eigenvalues not converged
     c_bands:  2 eigenvalues not converged
     c_bands:  2 eigenvalues not converged
     c_bands:  1 eigenvalues not converged
     c_bands:  1 eigenvalues not converged
     c_bands:  1 eigenvalues not converged
     c_bands:  1 eigenvalues not converged
     c_bands:  1 eigenvalues not converged
     c_bands:  1 eigenvalues not converged
     c_bands:  1 eigenvalues not converged
     c_bands:  1 eigenvalues not converged
     c_bands:  1 eigenvalues not converged
     c_bands:  1 eigenvalues not converged
     c_bands:  1 eigenvalues not converged
     c_bands:  1 eigenvalues not converged
     c_bands:  1 eigenvalues not converged
     c_bands:  1 eigenvalues not converged
     c_bands:  2 eigenvalues not converged
     c_bands:  1 eigenvalues not converged
     c_bands:  1 eigenvalues not converged
     c_bands:  1 eigenvalues not converged
     c_bands:  1 eigenvalues not converged
     c_bands:  2 eigenvalues not converged
     c_bands:  1 eigenvalues not converged
     c_bands:  1 eigenvalues not converged
     ethr =  1.71E-05,  avg # of iterations =  6.9

     negative rho (up, down):  1.618E-02 0.000E+00

     total cpu time spent up to now is       14.9 secs

     total energy              =    -164.15417000 Ry
     estimated scf accuracy    <       0.00244945 Ry

     iteration #  2     ecut=    60.00 Ry     beta= 0.70
     Davidson diagonalization with overlap
     c_bands:  1 eigenvalues not converged
     ethr =  1.75E-05,  avg # of iterations =  2.3

     negative rho (up, down):  1.637E-02 0.000E+00

     total cpu time spent up to now is       17.4 secs

     total energy              =    -164.15477655 Ry
     estimated scf accuracy    <       0.00017369 Ry

     iteration #  3     ecut=    60.00 Ry     beta= 0.70
     Davidson diagonalization with overlap
     c_bands:  1 eigenvalues not converged
     c_bands:  2 eigenvalues not converged
     c_bands:  2 eigenvalues not converged
     c_bands:  1 eigenvalues not converged
     c_bands:  1 eigenvalues not converged
     c_bands:  1 eigenvalues not converged
     c_bands:  1 eigenvalues not converged
     c_bands:  1 eigenvalues not converged
     c_bands:  1 eigenvalues not converged
     c_bands:  1 eigenvalues not converged
     c_bands:  1 eigenvalues not converged
     c_bands:  2 eigenvalues not converged
     c_bands:  2 eigenvalues not converged
     c_bands:  1 eigenvalues not converged
     c_bands:  1 eigenvalues not converged
     c_bands:  1 eigenvalues not converged
     c_bands:  1 eigenvalues not converged
     c_bands:  2 eigenvalues not converged
     c_bands:  1 eigenvalues not converged
     c_bands:  1 eigenvalues not converged
     c_bands:  2 eigenvalues not converged
     c_bands:  1 eigenvalues not converged
     c_bands:  1 eigenvalues not converged
     c_bands:  1 eigenvalues not converged
     c_bands:  1 eigenvalues not converged
     c_bands:  1 eigenvalues not converged
     c_bands:  2 eigenvalues not converged
     c_bands:  1 eigenvalues not converged
     c_bands:  1 eigenvalues not converged
     c_bands:  2 eigenvalues not converged
     c_bands:  1 eigenvalues not converged
     c_bands:  1 eigenvalues not converged
     c_bands:  2 eigenvalues not converged
     c_bands:  1 eigenvalues not converged
     c_bands:  1 eigenvalues not converged
     c_bands:  1 eigenvalues not converged
     ethr =  1.24E-06,  avg # of iterations =  8.8

     negative rho (up, down):  1.655E-02 0.000E+00

     total cpu time spent up to now is       24.0 secs

     total energy              =    -164.15483393 Ry
     estimated scf accuracy    <       0.00000810 Ry

     iteration #  4     ecut=    60.00 Ry     beta= 0.70
     Davidson diagonalization with overlap
     c_bands:  1 eigenvalues not converged
     c_bands:  1 eigenvalues not converged
     c_bands:  2 eigenvalues not converged
     c_bands:  1 eigenvalues not converged
     c_bands:  1 eigenvalues not converged
     c_bands:  2 eigenvalues not converged
     c_bands:  2 eigenvalues not converged
     c_bands:  1 eigenvalues not converged
     ethr =  5.79E-08,  avg # of iterations =  6.4

     negative rho (up, down):  1.659E-02 0.000E+00

     total cpu time spent up to now is       29.2 secs

     total energy              =    -164.15483933 Ry
     estimated scf accuracy    <       0.00000008 Ry

     iteration #  5     ecut=    60.00 Ry     beta= 0.70
     Davidson diagonalization with overlap
     c_bands:  1 eigenvalues not converged
     ethr =  5.68E-10,  avg # of iterations =  4.1

     negative rho (up, down):  1.658E-02 0.000E+00

     total cpu time spent up to now is       32.6 secs

     total energy              =    -164.15483944 Ry
     estimated scf accuracy    <          1.9E-09 Ry

     iteration #  6     ecut=    60.00 Ry     beta= 0.70
     Davidson diagonalization with overlap
     c_bands:  1 eigenvalues not converged
     ethr =  1.33E-11,  avg # of iterations =  3.6

     negative rho (up, down):  1.658E-02 0.000E+00

     total cpu time spent up to now is       35.9 secs

     total energy              =    -164.15483944 Ry
     estimated scf accuracy    <          2.6E-10 Ry

     iteration #  7     ecut=    60.00 Ry     beta= 0.70
     Davidson diagonalization with overlap
     ethr =  1.88E-12,  avg # of iterations =  2.6

     negative rho (up, down):  1.658E-02 0.000E+00

     total cpu time spent up to now is       38.6 secs

     total energy              =    -164.15483944 Ry
     estimated scf accuracy    <          8.5E-13 Ry

     iteration #  8     ecut=    60.00 Ry     beta= 0.70
     Davidson diagonalization with overlap
     ethr =  1.00E-13,  avg # of iterations =  3.3

     negative rho (up, down):  1.658E-02 0.000E+00

     total cpu time spent up to now is       41.7 secs

     End of self-consistent calculation

     Number of k-points >= 100: set verbosity='high' to print the bands.

     the Fermi energy is    11.9933 ev

!    total energy              =    -164.15483944 Ry
     estimated scf accuracy    <          5.9E-15 Ry
     smearing contrib. (-TS)   =      -0.00023359 Ry
     internal energy E=F+TS    =    -164.15460585 Ry

     The total energy is F=E-TS. E is the sum of the following terms:
     one-electron contribution =     -28.79389336 Ry
     hartree contribution      =      25.50001612 Ry
     xc contribution           =     -63.42215144 Ry
     ewald contribution        =     -97.43857717 Ry

     convergence has been achieved in   8 iterations

     Writing all to output data dir ./lead.save/
 
     init_run     :      1.65s CPU      5.77s WALL (       1 calls)
     electrons    :     35.63s CPU     35.62s WALL (       1 calls)

     Called by init_run:
     wfcinit      :      0.71s CPU      2.18s WALL (       1 calls)
                                        2.18s GPU  (       1 calls)
     potinit      :      0.03s CPU      0.01s WALL (       1 calls)
     hinit0       :      0.21s CPU      0.24s WALL (       1 calls)

     Called by electrons:
     c_bands      :     33.35s CPU     33.36s WALL (       9 calls)
     sum_band     :      2.07s CPU      2.11s WALL (       9 calls)
     v_of_rho     :      0.14s CPU      0.04s WALL (       9 calls)
     newd         :      0.67s CPU      3.29s WALL (       9 calls)
                                        3.29s GPU  (       9 calls)
     mix_rho      :      0.03s CPU      0.03s WALL (       9 calls)

     Called by c_bands:
     init_us_2    :      1.01s CPU      1.05s WALL (    4864 calls)
     init_us_2:gp :      0.95s CPU      0.99s WALL (    4864 calls)
     cegterg      :     32.02s CPU     32.07s WALL (    2304 calls)

     Called by *egterg:
     cdiaghg      :      9.65s CPU     11.73s WALL (   12760 calls)
                                       11.68s GPU  (   12760 calls)
     h_psi        :      9.03s CPU      9.12s WALL (   13272 calls)
                                        9.08s GPU  (   13272 calls)
     s_psi        :      0.80s CPU      1.25s WALL (   13272 calls)
                                        1.20s GPU  (   13272 calls)
     g_psi        :      0.07s CPU      0.16s WALL (   10712 calls)
                                        0.12s GPU  (   10712 calls)

     Called by h_psi:
     h_psi:calbec :      0.31s CPU      0.83s WALL (   13272 calls)
                                        0.79s GPU  (   13272 calls)
     vloc_psi     :      6.71s CPU      6.70s WALL (   13272 calls)
                                        6.65s GPU  (   13272 calls)
     add_vuspsi   :      0.62s CPU      1.07s WALL (   13272 calls)
                                        1.03s GPU  (   13272 calls)

     General routines
     calbec       :      0.27s CPU      0.30s WALL (   15576 calls)
     fft          :      0.04s CPU      0.12s WALL (     116 calls)
                                        0.10s GPU  (     107 calls)
     ffts         :      0.01s CPU      0.01s WALL (      18 calls)
                                        0.00s GPU  (       9 calls)
     fftw         :      0.49s CPU      4.61s WALL (   28848 calls)
                                        4.52s GPU  (   28848 calls)
     interpolate  :      0.02s CPU      0.02s WALL (       9 calls)
 
 
     PWSCF        :     40.67s CPU     43.92s WALL

 
   This run was terminated on:  12: 0:19  26Jun2023            

=------------------------------------------------------------------------------=
   JOB DONE.
=------------------------------------------------------------------------------=
