
     Program PWSCF v.7.2 starts on 26Jun2023 at 12:16:46 

     This program is part of the open-source Quantum ESPRESSO suite
     for quantum simulation of materials; please cite
         "P. Giannozzi et al., J. Phys.:Condens. Matter 21 395502 (2009);
         "P. Giannozzi et al., J. Phys.:Condens. Matter 29 465901 (2017);
         "P. Giannozzi et al., J. Chem. Phys. 152 154105 (2020);
          URL http://www.quantum-espresso.org", 
     in publications or presentations arising from this work. More details at
     http://www.quantum-espresso.org/quote

     Serial multi-threaded version, running on   16 processor cores
     108137 MiB available memory on the printing compute node when the environment starts
 
     Waiting for input...
     Reading input from standard input
     Message from routine read_cards :
     DEPRECATED: no units specified in ATOMIC_POSITIONS card
     Message from routine read_cards :
     ATOMIC_POSITIONS: units set to alat

     Current dimensions of program PWSCF are:
     Max number of different atomic species (ntypx) = 10
     Max number of k-points (npk) =  40000
     Max angular momentum in pseudopotentials (lmaxx) =  4
 
 
     G-vector sticks info
     --------------------
     sticks:   dense  smooth     PW     G-vecs:    dense   smooth      PW
     Sum        1405     703    211                34717    12339    2109
 
     Using Slab Decomposition
 


     bravais-lattice index     =            2
     lattice parameter (alat)  =       9.2226  a.u.
     unit-cell volume          =     196.1075 (a.u.)^3
     number of atoms/cell      =            1
     number of atomic types    =            1
     number of electrons       =        14.00
     number of Kohn-Sham states=           11
     kinetic-energy cutoff     =      60.0000  Ry
     charge density cutoff     =     480.0000  Ry
     scf convergence threshold =      1.0E-14
     mixing beta               =       0.7000
     number of iterations used =            8  plain     mixing
     Exchange-correlation= SLA  PW   PBE  PBE
                           (   1   4   3   4   0   0   0)

     GPU acceleration is ACTIVE.


     celldm(1)=   9.222558  celldm(2)=   0.000000  celldm(3)=   0.000000
     celldm(4)=   0.000000  celldm(5)=   0.000000  celldm(6)=   0.000000

     crystal axes: (cart. coord. in units of alat)
               a(1) = (  -0.500000   0.000000   0.500000 )  
               a(2) = (   0.000000   0.500000   0.500000 )  
               a(3) = (  -0.500000   0.500000   0.000000 )  

     reciprocal axes: (cart. coord. in units 2 pi/alat)
               b(1) = ( -1.000000 -1.000000  1.000000 )  
               b(2) = (  1.000000  1.000000  1.000000 )  
               b(3) = ( -1.000000  1.000000 -1.000000 )  


     PseudoPot. # 1 for Pb read from file:
     ./pb.UPF
     MD5 check sum: 3d1c1779aa92214d1e8f3a7db79003e2
     Pseudo is Ultrasoft + core correction, Zval = 14.0
     Generated by new atomic code, or converted to UPF format
     Using radial grid of  899 points,  6 beta functions with: 
                l(1) =   0
                l(2) =   0
                l(3) =   1
                l(4) =   1
                l(5) =   2
                l(6) =   2
     Q(r) pseudized with  6 coefficients,  rinner =    1.000   1.000   1.000
                                                       1.000   1.000

     atomic species   valence    mass     pseudopotential
        Pb            14.00   207.20000     Pb( 1.00)

     48 Sym. Ops., with inversion, found



   Cartesian axes

     site n.     atom                  positions (alat units)
         1           Pb  tau(   1) = (   0.0000000   0.0000000   0.0000000  )

     number of k points=    47  Marzari-Vanderbilt smearing, width (Ry)=  0.0500
                       cart. coord. in units 2pi/alat
        k(    1) = (   0.0000000   0.0000000   0.0000000), wk =   0.0020000
        k(    2) = (  -0.1000000   0.1000000  -0.1000000), wk =   0.0160000
        k(    3) = (  -0.2000000   0.2000000  -0.2000000), wk =   0.0160000
        k(    4) = (  -0.3000000   0.3000000  -0.3000000), wk =   0.0160000
        k(    5) = (  -0.4000000   0.4000000  -0.4000000), wk =   0.0160000
        k(    6) = (   0.5000000  -0.5000000   0.5000000), wk =   0.0080000
        k(    7) = (   0.0000000   0.2000000   0.0000000), wk =   0.0120000
        k(    8) = (  -0.1000000   0.3000000  -0.1000000), wk =   0.0480000
        k(    9) = (  -0.2000000   0.4000000  -0.2000000), wk =   0.0480000
        k(   10) = (  -0.3000000   0.5000000  -0.3000000), wk =   0.0480000
        k(   11) = (   0.6000000  -0.4000000   0.6000000), wk =   0.0480000
        k(   12) = (   0.5000000  -0.3000000   0.5000000), wk =   0.0480000
        k(   13) = (   0.4000000  -0.2000000   0.4000000), wk =   0.0480000
        k(   14) = (   0.3000000  -0.1000000   0.3000000), wk =   0.0480000
        k(   15) = (   0.2000000   0.0000000   0.2000000), wk =   0.0240000
        k(   16) = (   0.0000000   0.4000000   0.0000000), wk =   0.0120000
        k(   17) = (  -0.1000000   0.5000000  -0.1000000), wk =   0.0480000
        k(   18) = (  -0.2000000   0.6000000  -0.2000000), wk =   0.0480000
        k(   19) = (   0.7000000  -0.3000000   0.7000000), wk =   0.0480000
        k(   20) = (   0.6000000  -0.2000000   0.6000000), wk =   0.0480000
        k(   21) = (   0.5000000  -0.1000000   0.5000000), wk =   0.0480000
        k(   22) = (   0.4000000   0.0000000   0.4000000), wk =   0.0240000
        k(   23) = (   0.0000000   0.6000000   0.0000000), wk =   0.0120000
        k(   24) = (  -0.1000000   0.7000000  -0.1000000), wk =   0.0480000
        k(   25) = (   0.8000000  -0.2000000   0.8000000), wk =   0.0480000
        k(   26) = (   0.7000000  -0.1000000   0.7000000), wk =   0.0480000
        k(   27) = (   0.6000000  -0.0000000   0.6000000), wk =   0.0240000
        k(   28) = (   0.0000000   0.8000000   0.0000000), wk =   0.0120000
        k(   29) = (   0.9000000  -0.1000000   0.9000000), wk =   0.0480000
        k(   30) = (   0.8000000   0.0000000   0.8000000), wk =   0.0240000
        k(   31) = (   0.0000000  -1.0000000   0.0000000), wk =   0.0060000
        k(   32) = (  -0.2000000   0.4000000   0.0000000), wk =   0.0480000
        k(   33) = (  -0.3000000   0.5000000  -0.1000000), wk =   0.0960000
        k(   34) = (   0.6000000  -0.4000000   0.8000000), wk =   0.0960000
        k(   35) = (   0.5000000  -0.3000000   0.7000000), wk =   0.0480000
        k(   36) = (  -0.2000000   0.6000000   0.0000000), wk =   0.0480000
        k(   37) = (   0.7000000  -0.3000000   0.9000000), wk =   0.0960000
        k(   38) = (   0.6000000  -0.2000000   0.8000000), wk =   0.0960000
        k(   39) = (   0.5000000  -0.1000000   0.7000000), wk =   0.0960000
        k(   40) = (   0.4000000   0.0000000   0.6000000), wk =   0.0480000
        k(   41) = (   0.8000000  -0.2000000   1.0000000), wk =   0.0480000
        k(   42) = (   0.7000000  -0.1000000   0.9000000), wk =   0.0960000
        k(   43) = (   0.6000000   0.0000000   0.8000000), wk =   0.0480000
        k(   44) = (  -0.2000000  -1.0000000   0.0000000), wk =   0.0240000
        k(   45) = (   0.6000000  -0.2000000   1.0000000), wk =   0.0480000
        k(   46) = (   0.5000000  -0.1000000   0.9000000), wk =   0.0480000
        k(   47) = (  -0.4000000  -1.0000000   0.0000000), wk =   0.0240000

     Dense  grid:    34717 G-vectors     FFT dimensions: (  45,  45,  45)

     Smooth grid:    12339 G-vectors     FFT dimensions: (  36,  36,  36)

     Estimated max dynamical RAM per process >     134.16 MB

     Check: negative core charge=   -0.000001

     Initial potential from superposition of free atoms

     starting charge      13.9976, renormalised to      14.0000

     negative rho (up, down):  1.602E-02 0.000E+00
     Starting wfcs are    9 randomized atomic wfcs +    2 random wfcs

     total cpu time spent up to now is        5.5 secs

     Self-consistent Calculation

     iteration #  1     ecut=    60.00 Ry     beta= 0.70
     Davidson diagonalization with overlap
     ethr =  1.00E-02,  avg # of iterations =  3.9

     Threshold (ethr) on eigenvalues was too large:
     Diagonalizing with lowered threshold

     Davidson diagonalization with overlap
     c_bands:  1 eigenvalues not converged
     c_bands:  2 eigenvalues not converged
     c_bands:  1 eigenvalues not converged
     ethr =  1.72E-05,  avg # of iterations =  6.4

     negative rho (up, down):  1.617E-02 0.000E+00

     total cpu time spent up to now is        7.0 secs

     total energy              =    -164.15397180 Ry
     estimated scf accuracy    <       0.00246960 Ry

     iteration #  2     ecut=    60.00 Ry     beta= 0.70
     Davidson diagonalization with overlap
     ethr =  1.76E-05,  avg # of iterations =  2.2

     negative rho (up, down):  1.636E-02 0.000E+00

     total cpu time spent up to now is        7.5 secs

     total energy              =    -164.15458248 Ry
     estimated scf accuracy    <       0.00017430 Ry

     iteration #  3     ecut=    60.00 Ry     beta= 0.70
     Davidson diagonalization with overlap
     c_bands:  2 eigenvalues not converged
     c_bands:  1 eigenvalues not converged
     c_bands:  1 eigenvalues not converged
     c_bands:  3 eigenvalues not converged
     c_bands:  1 eigenvalues not converged
     ethr =  1.24E-06,  avg # of iterations = 10.4

     negative rho (up, down):  1.656E-02 0.000E+00

     total cpu time spent up to now is        8.9 secs

     total energy              =    -164.15464217 Ry
     estimated scf accuracy    <       0.00000819 Ry

     iteration #  4     ecut=    60.00 Ry     beta= 0.70
     Davidson diagonalization with overlap
     c_bands:  2 eigenvalues not converged
     ethr =  5.85E-08,  avg # of iterations =  4.8

     negative rho (up, down):  1.658E-02 0.000E+00

     total cpu time spent up to now is        9.6 secs

     total energy              =    -164.15464618 Ry
     estimated scf accuracy    <       0.00000006 Ry

     iteration #  5     ecut=    60.00 Ry     beta= 0.70
     Davidson diagonalization with overlap
     c_bands:  1 eigenvalues not converged
     ethr =  4.35E-10,  avg # of iterations =  4.5

     negative rho (up, down):  1.658E-02 0.000E+00

     total cpu time spent up to now is       10.3 secs

     total energy              =    -164.15464627 Ry
     estimated scf accuracy    <          8.5E-10 Ry

     iteration #  6     ecut=    60.00 Ry     beta= 0.70
     Davidson diagonalization with overlap
     ethr =  6.08E-12,  avg # of iterations =  4.0

     negative rho (up, down):  1.658E-02 0.000E+00

     total cpu time spent up to now is       11.0 secs

     total energy              =    -164.15464627 Ry
     estimated scf accuracy    <          3.7E-11 Ry

     iteration #  7     ecut=    60.00 Ry     beta= 0.70
     Davidson diagonalization with overlap
     ethr =  2.61E-13,  avg # of iterations =  3.2

     negative rho (up, down):  1.658E-02 0.000E+00

     total cpu time spent up to now is       11.5 secs

     total energy              =    -164.15464627 Ry
     estimated scf accuracy    <          6.1E-13 Ry

     iteration #  8     ecut=    60.00 Ry     beta= 0.70
     Davidson diagonalization with overlap
     ethr =  1.00E-13,  avg # of iterations =  1.3

     negative rho (up, down):  1.658E-02 0.000E+00

     total cpu time spent up to now is       11.8 secs

     End of self-consistent calculation

          k = 0.0000 0.0000 0.0000 (  1471 PWs)   bands (ev):

    -5.1714  -5.1714  -5.1714  -5.0127  -5.0127  -0.1056  19.6969  19.6969
    19.6969  19.9486  21.7752

          k =-0.1000 0.1000-0.1000 (  1516 PWs)   bands (ev):

    -5.1723  -5.1559  -5.1559  -5.0133  -5.0133   0.0957  17.5842  19.4528
    19.4528  19.9578  21.4795

          k =-0.2000 0.2000-0.2000 (  1528 PWs)   bands (ev):

    -5.1780  -5.1326  -5.1326  -4.9971  -4.9971   0.7009  14.3358  18.9058
    18.9058  19.9536  21.2067

          k =-0.3000 0.3000-0.3000 (  1528 PWs)   bands (ev):

    -5.1908  -5.1368  -5.1368  -4.9424  -4.9424   1.6943  11.2943  18.3323
    18.3323  19.9494  21.0843

          k =-0.4000 0.4000-0.4000 (  1531 PWs)   bands (ev):

    -5.2050  -5.1525  -5.1525  -4.8848  -4.8848   2.9550   8.7707  17.9144
    17.9144  19.9483  21.1311

          k = 0.5000-0.5000 0.5000 (  1538 PWs)   bands (ev):

    -5.2112  -5.1597  -5.1597  -4.8613  -4.8613   3.7749   7.5255  17.7621
    17.7621  19.9487  21.2431

          k = 0.0000 0.2000 0.0000 (  1515 PWs)   bands (ev):

    -5.1894  -5.1402  -5.1402  -5.0318  -4.9996   0.1626  18.2447  18.6371
    18.6371  19.9694  21.0799

          k =-0.1000 0.3000-0.1000 (  1526 PWs)   bands (ev):

    -5.1991  -5.1130  -5.1088  -5.0422  -4.9793   0.6331  15.4446  17.8480
    18.4164  19.9693  21.2689

          k =-0.2000 0.4000-0.2000 (  1535 PWs)   bands (ev):

    -5.2001  -5.1213  -5.1029  -5.0053  -4.9301   1.4991  12.3752  17.2831
    17.7304  19.9658  20.9262

          k =-0.3000 0.5000-0.3000 (  1551 PWs)   bands (ev):

    -5.2014  -5.1434  -5.1179  -4.9445  -4.8777   2.6891   9.6907  16.9415
    17.0400  19.9599  20.4369

          k = 0.6000-0.4000 0.6000 (  1529 PWs)   bands (ev):

    -5.1994  -5.1578  -5.1314  -4.8965  -4.8597   3.7964   7.8949  16.2965
    17.1738  19.9568  20.3704

          k = 0.5000-0.3000 0.5000 (  1533 PWs)   bands (ev):

    -5.1905  -5.1581  -5.1324  -4.8896  -4.8831   3.4998   8.3337  15.9513
    17.6908  19.9587  20.6973

          k = 0.4000-0.2000 0.4000 (  1541 PWs)   bands (ev):

    -5.1817  -5.1432  -5.1201  -4.9558  -4.9078   2.2660  10.5317  15.9699
    18.5151  19.9602  21.3816

          k = 0.3000-0.1000 0.3000 (  1528 PWs)   bands (ev):

    -5.1784  -5.1267  -5.1094  -5.0215  -4.9536   1.1683  13.3524  16.3737
    19.4080  19.9615  22.1030

          k = 0.2000 0.0000 0.2000 (  1520 PWs)   bands (ev):

    -5.1777  -5.1356  -5.1311  -5.0305  -4.9922   0.4317  16.1612  17.4038
    19.8480  19.9621  21.8982

          k = 0.0000 0.4000 0.0000 (  1531 PWs)   bands (ev):

    -5.2365  -5.0873  -5.0564  -5.0564  -4.9650   0.9679  15.7984  16.8677
    16.8677  19.9693  20.0776

          k =-0.1000 0.5000-0.1000 (  1532 PWs)   bands (ev):

    -5.2500  -5.1209  -5.0295  -5.0080  -4.9245   1.6989  13.4352  16.1225
    16.1830  19.7745  19.9791

          k =-0.2000 0.6000-0.2000 (  1532 PWs)   bands (ev):

    -5.2409  -5.1338  -5.0397  -4.9776  -4.8719   2.7750  10.8555  15.0025
    15.8890  19.3485  19.9742

          k = 0.7000-0.3000 0.7000 (  1539 PWs)   bands (ev):

    -5.2258  -5.1213  -5.0566  -4.9614  -4.8552   3.9448   8.8501  14.0081
    16.0334  19.3194  19.9744

          k = 0.6000-0.2000 0.6000 (  1549 PWs)   bands (ev):

    -5.2041  -5.1124  -5.0662  -4.9456  -4.8887   4.1917   8.5155  13.3636
    16.6195  19.6395  19.9816

          k = 0.5000-0.1000 0.5000 (  1537 PWs)   bands (ev):

    -5.1736  -5.1283  -5.0626  -4.9611  -4.9291   3.1579  10.1764  13.1954
    17.5842  19.9526  20.3454

          k = 0.4000 0.0000 0.4000 (  1538 PWs)   bands (ev):

    -5.1579  -5.1428  -5.0465  -5.0444  -4.9284   2.0161  12.2387  13.9215
    18.7220  19.9617  21.3635

          k = 0.0000 0.6000 0.0000 (  1547 PWs)   bands (ev):

    -5.2944  -5.1651  -4.9489  -4.9489  -4.9220   2.2914  12.9864  15.3594
    15.3594  18.8186  19.3253

          k =-0.1000 0.7000-0.1000 (  1541 PWs)   bands (ev):

    -5.3011  -5.1906  -4.9463  -4.9147  -4.8695   3.2327  11.3011  14.0440
    14.9409  18.5558  19.9628

          k = 0.8000-0.2000 0.8000 (  1537 PWs)   bands (ev):

    -5.2775  -5.1704  -4.9634  -4.9254  -4.8480   4.3301   9.7669  12.4041
    14.9853  18.5721  19.9726

          k = 0.7000-0.1000 0.7000 (  1539 PWs)   bands (ev):

    -5.2471  -5.0963  -4.9814  -4.9763  -4.8784   4.8709   9.2750  11.2169
    15.4976  18.8548  19.9736

          k = 0.6000-0.0000 0.6000 (  1534 PWs)   bands (ev):

    -5.2103  -5.0559  -5.0049  -4.9987  -4.9365   4.2070  10.0921  11.0630
    16.4197  19.4310  19.9786

          k = 0.0000 0.8000 0.0000 (  1536 PWs)   bands (ev):

    -5.3408  -5.2339  -4.8870  -4.8582  -4.8582   4.0187  10.1681  14.3796
    14.3796  17.7658  18.8795

          k = 0.9000-0.1000 0.9000 (  1556 PWs)   bands (ev):

    -5.3326  -5.2385  -4.8932  -4.8526  -4.8352   4.9157   9.1344  13.0593
    14.2853  18.0122  19.7455

          k = 0.8000 0.0000 0.8000 (  1552 PWs)   bands (ev):

    -5.2923  -5.1873  -4.9194  -4.9015  -4.8534   5.2853   9.1720  11.2948
    14.6739  18.3398  19.9724

          k = 0.0000-1.0000 0.0000 (  1572 PWs)   bands (ev):

    -5.3585  -5.2614  -4.8736  -4.8227  -4.8227   5.2888   8.5018  14.0411
    14.0411  17.4524  18.7330

          k =-0.2000 0.4000 0.0000 (  1541 PWs)   bands (ev):

    -5.2084  -5.1082  -5.0602  -5.0558  -4.9468   1.2347  14.0728  15.6625
    18.3083  19.9679  21.5645

          k =-0.3000 0.5000-0.1000 (  1541 PWs)   bands (ev):

    -5.1981  -5.1308  -5.0674  -5.0002  -4.9075   2.2096  11.6269  14.7151
    17.3840  19.9651  21.0369

          k = 0.6000-0.4000 0.8000 (  1534 PWs)   bands (ev):

    -5.1851  -5.1541  -5.0735  -4.9535  -4.8784   3.4190   9.2945  14.4550
    16.4781  19.9639  20.7314

          k = 0.5000-0.3000 0.7000 (  1540 PWs)   bands (ev):

    -5.1729  -5.1718  -5.0742  -4.9349  -4.8685   4.1731   8.1507  14.4279
    16.1007  19.9637  20.6343

          k =-0.2000 0.6000 0.0000 (  1551 PWs)   bands (ev):

    -5.2571  -5.1498  -5.0152  -4.9515  -4.8969   2.5380  12.1662  14.2375
    15.6290  19.9306  20.1359

          k = 0.7000-0.3000 0.9000 (  1541 PWs)   bands (ev):

    -5.2342  -5.1530  -5.0248  -4.9332  -4.8719   3.6480  10.3620  13.1695
    14.7943  19.9490  20.2275

          k = 0.6000-0.2000 0.8000 (  1543 PWs)   bands (ev):

    -5.2110  -5.1234  -5.0221  -4.9722  -4.8629   4.5869   9.0214  12.4335
    14.6852  19.9584  20.4066

          k = 0.5000-0.1000 0.7000 (  1540 PWs)   bands (ev):

    -5.1866  -5.1195  -5.0256  -4.9778  -4.8926   4.3176   9.4505  12.0199
    15.2506  19.9636  20.8548

          k = 0.4000 0.0000 0.6000 (  1535 PWs)   bands (ev):

    -5.1596  -5.1572  -5.0497  -4.9554  -4.9226   3.2328  10.8832  12.5041
    16.2581  19.9652  21.4264

          k = 0.8000-0.2000 1.0000 (  1544 PWs)   bands (ev):

    -5.2971  -5.2086  -4.9442  -4.8716  -4.8590   4.1934  10.1582  13.3165
    13.7587  19.2869  20.2732

          k = 0.7000-0.1000 0.9000 (  1542 PWs)   bands (ev):

    -5.2592  -5.1800  -4.9651  -4.9176  -4.8398   5.0549   9.5018  11.6475
    13.6560  19.7779  20.0036

          k = 0.6000 0.0000 0.8000 (  1548 PWs)   bands (ev):

    -5.2231  -5.0969  -5.0244  -4.9640  -4.8625   5.0712  10.1293  10.2636
    14.2387  19.9517  20.2825

          k =-0.2000-1.0000 0.0000 (  1548 PWs)   bands (ev):

    -5.3124  -5.2329  -4.8978  -4.8796  -4.8226   5.3262   8.8390  12.9981
    13.1789  19.0395  19.9827

          k = 0.6000-0.2000 1.0000 (  1539 PWs)   bands (ev):

    -5.1787  -5.1666  -5.0411  -4.9336  -4.8610   4.6295  10.0688  11.5926
    13.5412  19.9651  21.9717

          k = 0.5000-0.1000 0.9000 (  1548 PWs)   bands (ev):

    -5.1731  -5.1171  -5.0716  -4.9650  -4.8408   5.1478   9.8227  11.0620
    13.0396  19.9658  22.2731

          k =-0.4000-1.0000 0.0000 (  1548 PWs)   bands (ev):

    -5.1872  -5.1745  -5.0223  -4.9494  -4.8226   5.3903   9.8061  11.2780
    12.3023  19.9647  22.0599

     the Fermi energy is    11.9792 ev

!    total energy              =    -164.15464627 Ry
     estimated scf accuracy    <          5.4E-15 Ry
     smearing contrib. (-TS)   =      -0.00049208 Ry
     internal energy E=F+TS    =    -164.15415419 Ry

     The total energy is F=E-TS. E is the sum of the following terms:
     one-electron contribution =     -28.79220654 Ry
     hartree contribution      =      25.49857652 Ry
     xc contribution           =     -63.42194701 Ry
     ewald contribution        =     -97.43857717 Ry

     convergence has been achieved in   8 iterations

     Writing all to output data dir ./lead.save/
 
     init_run     :      1.14s CPU      5.21s WALL (       1 calls)
     electrons    :      6.37s CPU      6.34s WALL (       1 calls)

     Called by init_run:
     wfcinit      :      0.20s CPU      1.63s WALL (       1 calls)
                                        1.63s GPU  (       1 calls)
     potinit      :      0.03s CPU      0.01s WALL (       1 calls)
     hinit0       :      0.22s CPU      0.24s WALL (       1 calls)

     Called by electrons:
     c_bands      :      5.74s CPU      5.77s WALL (       9 calls)
     sum_band     :      0.42s CPU      0.43s WALL (       9 calls)
     v_of_rho     :      0.14s CPU      0.04s WALL (       9 calls)
     newd         :      0.68s CPU      3.31s WALL (       9 calls)
                                        3.31s GPU  (       9 calls)
     mix_rho      :      0.03s CPU      0.02s WALL (       9 calls)

     Called by c_bands:
     init_us_2    :      0.17s CPU      0.18s WALL (     893 calls)
     init_us_2:gp :      0.16s CPU      0.17s WALL (     893 calls)
     cegterg      :      5.51s CPU      5.54s WALL (     423 calls)

     Called by *egterg:
     cdiaghg      :      1.77s CPU      3.29s WALL (    2284 calls)
                                        3.28s GPU  (    2284 calls)
     h_psi        :      1.57s CPU      1.61s WALL (    2378 calls)
                                        1.60s GPU  (    2378 calls)
     s_psi        :      0.13s CPU      0.21s WALL (    2378 calls)
                                        0.20s GPU  (    2378 calls)
     g_psi        :      0.01s CPU      0.02s WALL (    1908 calls)
                                        0.02s GPU  (    1908 calls)

     Called by h_psi:
     h_psi:calbec :      0.05s CPU      0.16s WALL (    2378 calls)
                                        0.15s GPU  (    2378 calls)
     vloc_psi     :      1.17s CPU      1.18s WALL (    2378 calls)
                                        1.17s GPU  (    2378 calls)
     add_vuspsi   :      0.10s CPU      0.18s WALL (    2378 calls)
                                        0.17s GPU  (    2378 calls)

     General routines
     calbec       :      0.04s CPU      0.06s WALL (    2801 calls)
     fft          :      0.04s CPU      0.12s WALL (     116 calls)
                                        0.10s GPU  (     107 calls)
     ffts         :      0.01s CPU      0.01s WALL (      18 calls)
                                        0.00s GPU  (       9 calls)
     fftw         :      0.07s CPU      0.84s WALL (    5179 calls)
                                        0.82s GPU  (    5179 calls)
     interpolate  :      0.02s CPU      0.02s WALL (       9 calls)
 
 
     PWSCF        :      8.33s CPU     12.30s WALL

 
   This run was terminated on:  12:16:58  26Jun2023            

=------------------------------------------------------------------------------=
   JOB DONE.
=------------------------------------------------------------------------------=
